<?xml version="1.0" encoding="UTF-8"?>

<!-- generated on 2025-02-20 23:21:34 by Eclipse SUMO dfrouter Version 1.19.0
<configuration xmlns:xsi="http://www.w3.org/2001/XMLSchema-instance" xsi:noNamespaceSchemaLocation="http://sumo.dlr.de/xsd/dfrouterConfiguration.xsd">

    <input>
        <net-file value=".\Network.net.xml"/>
        <detector-files value=".\Sensors_dfrouter.add.xml"/>
        <measure-files value=".\logs\loops_dfrouter\detectors_summary.csv"/>
    </input>

    <output>
        <routes-output value="df_router_routes.xml"/>
        <emitters-output value="df_router_emitters.xml"/>
    </output>

</configuration>
-->

<routes xmlns:xsi="http://www.w3.org/2001/XMLSchema-instance" xsi:noNamespaceSchemaLocation="http://sumo.dlr.de/xsd/routes_file.xsd">
    <vType id="DEFAULT_CAR" vClass="passenger" accel="3.8" decel="3.0" treaction="0.01" tau="0.5" lcStrategic="100" speedDev="0.25" jmDriveAfterRedTime="1.0" />

    <route id="-758088377#1_to_38361907" edges="-758088377#1 -E1 -E3 -38361908#1 -183049933#0 -1164287131#1 38361907"/>
    <route id="-758088377#1_to_-25973410#1" edges="-758088377#1 -E1 E4 -366025457#1 -366025457#0 -43323361#3 -43323361#2 -43323361#1 -25973410#1"/>
    <route id="-758088377#1_to_1302089903#1" edges="-758088377#1 -E1 E4 23725458#3 23725458#4 -89290459#1 1302089903#1"/>
    <route id="-758088377#1_to_60430429#1" edges="-758088377#1 -E1 -E3 -38361908#1 -183049933#0 60430429#1"/>
    <route id="-758088377#1_to_281956705#0" edges="-758088377#1 -E1 E4 23725458#3 23725458#4 23725458#5 281956705#0"/>
    <route id="-758088377#1_to_282513344#3" edges="-758088377#1 -E1 E4 23725458#3 23725458#4 23725458#5 282513345 282513344#0 282513344#1 282513344#2 282513344#3"/>
    <route id="-758088377#1_to_-E4" edges="-758088377#1 -E1 -E3 -38361908#1 25973410#1 43323361#1 43323361#2 43323361#3 366025457#0 366025457#1 -E4"/>
    <route id="-758088377#1_to_23999291#1" edges="-758088377#1 -E1 -E3 -38361908#1 -758088375#0 -4807776 47110442#2 47110442#3 23999291#0 23999291#1"/>
    <route id="-758088377#1_to_1178446503#1" edges="-758088377#1 -E1 -E3 -38361908#1 -758088375#0 -4807776 4811464 E19 25973409#1 1178446503#1"/>
    <route id="-758088377#1_to_-1296562737#1" edges="-758088377#1 -E1 -E3 -38361908#1 25973410#1 25973410#2 -1296562737#1"/>
    <route id="-758088377#1_to_25973410#5" edges="-758088377#1 -E1 -E3 -38361908#1 25973410#1 25973410#2 25973410#3 25973410#4 25973410#5"/>
    <route id="-758088377#1_to_-183419769#0" edges="-758088377#1 -E1 -E3 -38361908#1 -183049933#0 E17 E18 183419043#1 183419043#2 183419042#1 -183419769#0"/>
    <route id="-758088377#1_to_-387296015" edges="-758088377#1 -E1 E4 23725458#3 23725458#4 -89290459#1 -89290459#0 -23320555#0 -387296017#0 -387296015"/>
    <route id="-758088377#1_to_8026684#1" edges="-758088377#1 -E1 -E3 -38361908#1 -183049933#0 E17 E18 183419043#1 183419043#2 183419042#1 183419042#3 183419042#4 8026684#1"/>
    <route id="-758088377#1_to_-22889927#2" edges="-758088377#1 -E1 E4 23725458#3 23725458#4 -89290459#1 -89290459#0 -23320555#0 89290458#1 -22889927#2"/>
    <route id="-758088377#1_to_-283020993#1" edges="-758088377#1 -E1 -E3 -38361908#1 -758088375#0 -4807776 4811464 E19 25973409#1 25973409#2 25973409#3 -283020993#3 -283020993#2 -283020993#1"/>
    <route id="-758088377#1_to_-331752492#0" edges="-758088377#1 -E1 -E3 -38361908#1 -758088375#0 -4807776 47110442#2 47110442#3 -1169441387 -1169441388 -1169441386 -331752492#1 -331752492#0"/>
    <route id="-758088377#1_to_-E0" edges="-758088377#1 -E1 E4 23725458#3 23725458#4 -89290459#1 -89290459#0 -23320555#0 89290458#1 22889927#3 22889927#4 387296014#0 -E0"/>
    <route id="-758088377#1_to_-23320502" edges="-758088377#1 -E1 E4 23725458#3 23725458#4 -89290459#1 -89290459#0 -23320555#0 89290458#1 22889927#3 22889927#4 -23320502"/>
    <route id="-758088377#1_to_-981104557#1" edges="-758088377#1 -E1 -E3 -38361908#1 -183049933#0 E17 E18 183419043#1 183419043#2 183419042#1 183419042#3 183419042#4 183419042#5 183419042#7 183419042#8 -981104557#1"/>
    <route id="-758088377#1_to_183419042#9" edges="-758088377#1 -E1 -E3 -38361908#1 -183049933#0 E17 E18 183419043#1 183419043#2 183419042#1 183419042#3 183419042#4 183419042#5 183419042#7 183419042#8 183419042#9"/>
    <route id="-758088377#1_to_758088375#0" edges="-758088377#1 -E1 -E3 -38361908#1 -758088375#0 -4807776 -23059834#2 25576652#0 -25973409#1 -E19 -4811464 4807776 758088375#0"/>
    <route id="-758088377#1_to_-38706357#0" edges="-758088377#1 -E1 E4 23725458#3 23725458#4 -89290459#1 -89290459#0 -23320555#0 89290458#1 22889927#3 22889927#4 387296014#0 387296014#1 -38706357#0"/>
    <route id="-758088377#1_to_35822597" edges="-758088377#1 -E1 E4 23725458#3 23725458#4 23725458#5 -717160903#0 -25973407#2 35822597"/>
    <route id="-758088377#1_to_-23320505" edges="-758088377#1 -E1 E4 23725458#3 23725458#4 -89290459#1 -89290459#0 -23320555#0 -387296017#0 23320503 -23320505"/>
    <route id="-758088377#1_to_696225646#2" edges="-758088377#1 -E1 E4 23725458#3 23725458#4 -89290459#1 -89290459#0 -23320555#0 89290458#1 22889927#3 22889927#4 387296014#0 387296014#1 696225646#1 696225646#2"/>
    <route id="-758088377#1_to_23320456#2" edges="-758088377#1 -E1 E4 23725458#3 23725458#4 -89290459#1 -89290459#0 -23320555#0 89290458#1 22889927#3 22889927#4 387296014#0 387296014#1 23320456#1 23320456#2"/>
    <route id="-758088377#1_to_-25708882#3" edges="-758088377#1 -E1 -E3 -38361908#1 -758088375#0 -4807776 4811464 E19 25973409#1 25973409#2 25973409#3 -283020993#3 -283020993#2 -25577011#10 -25577011#9 -25577011#8 -25577011#7 -25577011#6 -25577011#5 -25577011#4 -25577011#3 -25708882#5 -25708882#4 -25708882#3"/>
    <route id="-758088377#1_to_22889927#0" edges="-758088377#1 -E1 -E3 -38361908#1 -758088375#0 -4807776 -23059834#2 -23059834#1 -25576697#7 25497525 758088377#2 22889927#0"/>
    <route id="-758088377#1_to_-25576763#1" edges="-758088377#1 -E1 -E3 -38361908#1 -758088375#0 -4807776 -23059834#2 -23059834#1 -25576697#7 -25576697#5 -25576697#3 -25576697#2 -25576697#1 -25576763#1"/>

    <route id="183049933#0_to_22889927#0" edges="183049933#0 38361908#1 E3 E1 758088377#1 758088377#2 22889927#0"/>
    <route id="183049933#0_to_-25973410#1" edges="183049933#0 38361908#1 E3 E4 -366025457#1 -366025457#0 -43323361#3 -43323361#2 -43323361#1 -25973410#1"/>
    <route id="183049933#0_to_1302089903#1" edges="183049933#0 38361908#1 E3 E4 23725458#3 23725458#4 -89290459#1 1302089903#1"/>
    <route id="183049933#0_to_281956705#0" edges="183049933#0 38361908#1 E3 E4 23725458#3 23725458#4 23725458#5 281956705#0"/>
    <route id="183049933#0_to_282513344#3" edges="183049933#0 38361908#1 E3 E4 23725458#3 23725458#4 23725458#5 282513345 282513344#0 282513344#1 282513344#2 282513344#3"/>
    <route id="183049933#0_to_-1296562737#1" edges="183049933#0 38361908#1 E3 E4 -366025457#1 -366025457#0 -43323361#3 -43323361#2 -43323361#1 25973410#2 -1296562737#1"/>
    <route id="183049933#0_to_-387296015" edges="183049933#0 38361908#1 E3 E4 23725458#3 23725458#4 -89290459#1 -89290459#0 -23320555#0 -387296017#0 -387296015"/>
    <route id="183049933#0_to_25973410#5" edges="183049933#0 38361908#1 E3 E4 -366025457#1 -366025457#0 -43323361#3 -43323361#2 -43323361#1 25973410#2 25973410#3 25973410#4 25973410#5"/>
    <route id="183049933#0_to_-22889927#2" edges="183049933#0 38361908#1 E3 E4 23725458#3 23725458#4 -89290459#1 -89290459#0 -23320555#0 89290458#1 -22889927#2"/>
    <route id="183049933#0_to_-183419769#0" edges="183049933#0 38361908#1 E3 E4 -366025457#1 -366025457#0 -43323361#3 -43323361#2 -43323361#1 34508801#1 183419043#2 183419042#1 -183419769#0"/>
    <route id="183049933#0_to_8026684#1" edges="183049933#0 38361908#1 E3 E4 -366025457#1 -366025457#0 -43323361#3 -43323361#2 -43323361#1 34508801#1 183419043#2 183419042#1 183419042#3 183419042#4 8026684#1"/>
    <route id="183049933#0_to_-E0" edges="183049933#0 38361908#1 E3 E4 23725458#3 23725458#4 -89290459#1 -89290459#0 -23320555#0 89290458#1 22889927#3 22889927#4 387296014#0 -E0"/>
    <route id="183049933#0_to_-23320502" edges="183049933#0 38361908#1 E3 E4 23725458#3 23725458#4 -89290459#1 -89290459#0 -23320555#0 89290458#1 22889927#3 22889927#4 -23320502"/>
    <route id="183049933#0_to_-38706357#0" edges="183049933#0 38361908#1 E3 E4 23725458#3 23725458#4 -89290459#1 -89290459#0 -23320555#0 89290458#1 22889927#3 22889927#4 387296014#0 387296014#1 -38706357#0"/>
    <route id="183049933#0_to_-981104557#1" edges="183049933#0 38361908#1 E3 E4 -366025457#1 -366025457#0 -43323361#3 -43323361#2 -43323361#1 34508801#1 183419043#2 183419042#1 183419042#3 183419042#4 183419042#5 183419042#7 183419042#8 -981104557#1"/>
    <route id="183049933#0_to_35822597" edges="183049933#0 38361908#1 E3 E4 23725458#3 23725458#4 23725458#5 -717160903#0 -25973407#2 35822597"/>
    <route id="183049933#0_to_183419042#9" edges="183049933#0 38361908#1 E3 E4 -366025457#1 -366025457#0 -43323361#3 -43323361#2 -43323361#1 34508801#1 183419043#2 183419042#1 183419042#3 183419042#4 183419042#5 183419042#7 183419042#8 183419042#9"/>
    <route id="183049933#0_to_-23320505" edges="183049933#0 38361908#1 E3 E4 23725458#3 23725458#4 -89290459#1 -89290459#0 -23320555#0 -387296017#0 23320503 -23320505"/>
    <route id="183049933#0_to_-E4" edges="183049933#0 38361908#1 E3 E4 23725458#3 23725458#4 23725458#5 282513345 282513344#0 282513344#1 282513344#2 23320536 96414313#0 96414313#1 89290459#0 89290459#1 -23725458#4 -23725458#3 -E4"/>
    <route id="183049933#0_to_696225646#2" edges="183049933#0 38361908#1 E3 E4 23725458#3 23725458#4 -89290459#1 -89290459#0 -23320555#0 89290458#1 22889927#3 22889927#4 387296014#0 387296014#1 696225646#1 696225646#2"/>
    <route id="183049933#0_to_23320456#2" edges="183049933#0 38361908#1 E3 E4 23725458#3 23725458#4 -89290459#1 -89290459#0 -23320555#0 89290458#1 22889927#3 22889927#4 387296014#0 387296014#1 23320456#1 23320456#2"/>
    <route id="183049933#0_to_-283020993#1" edges="183049933#0 38361908#1 E3 E1 758088377#1 -25497525 25576697#7 -283020995 283020996#0 283020996#1 25973409#3 -283020993#3 -283020993#2 -283020993#1"/>
    <route id="183049933#0_to_1178446503#1" edges="183049933#0 38361908#1 E3 E1 758088377#1 -25497525 25576697#7 -283020995 283020996#0 283020996#1 -25973409#2 1178446503#1"/>
    <route id="183049933#0_to_758088375#0" edges="183049933#0 38361908#1 E3 E1 758088377#1 -25497525 25576697#7 23059834#1 23059834#2 4807776 758088375#0"/>
    <route id="183049933#0_to_23999291#1" edges="183049933#0 38361908#1 E3 E1 758088377#1 -25497525 25576697#7 -283020995 283020996#0 283020996#1 -25973409#2 -25973409#1 -E19 -4811464 47110442#2 47110442#3 23999291#0 23999291#1"/>
    <route id="183049933#0_to_-25576763#1" edges="183049933#0 38361908#1 E3 E1 758088377#1 -25497525 -25576697#5 -25576697#3 -25576697#2 -25576697#1 -25576763#1"/>
    <route id="183049933#0_to_-25708882#3" edges="183049933#0 38361908#1 E3 E1 758088377#1 -25497525 25576697#7 -283020995 283020996#0 283020996#1 25973409#3 -283020993#3 -283020993#2 -25577011#10 -25577011#9 -25577011#8 -25577011#7 -25577011#6 -25577011#5 -25577011#4 -25577011#3 -25708882#5 -25708882#4 -25708882#3"/>
    <route id="183049933#0_to_-331752492#0" edges="183049933#0 38361908#1 E3 E1 758088377#1 -25497525 25576697#7 -283020995 283020996#0 283020996#1 -25973409#2 -25973409#1 -E19 -4811464 47110442#2 47110442#3 -1169441387 -1169441388 -1169441386 -331752492#1 -331752492#0"/>
    <route id="183049933#0_to_-758088377#1" edges="183049933#0 38361908#1 E3 E1 758088377#1 -25497525 -25576697#5 -25576697#3 -25576697#2 -25576697#1 -25576697#0 -22889927#0 -758088377#2 -758088377#1"/>

    <route id="E8_to_1162834452" edges="E8 -758088380#0 394114218#1 1162834452"/>
    <route id="E8_to_-149495339#0" edges="E8 -758088380#0 394114218#1 -149495339#3 -149495339#2 -149495339#1 -149495339#0"/>
    <route id="E8_to_-38706357#0" edges="E8 -758088380#0 -696225646#3 -696225646#2 -696225646#1 -38706357#0"/>
    <route id="E8_to_-E0" edges="E8 -758088380#0 -696225646#3 -696225646#2 -696225646#1 -387296014#1 -E0"/>
    <route id="E8_to_937779287#2" edges="E8 -758088380#0 394114218#1 -25708798 25708827 937779287#1 937779287#2"/>
    <route id="E8_to_-23320502" edges="E8 -758088380#0 -696225646#3 -696225646#2 -696225646#1 -387296014#1 -387296014#0 -23320502"/>
    <route id="E8_to_-22889927#2" edges="E8 -758088380#0 -696225646#3 -696225646#2 -696225646#1 -387296014#1 -387296014#0 -22889927#4 -22889927#3 -22889927#2"/>
    <route id="E8_to_23320456#2" edges="E8 -758088380#0 -696225646#3 -696225646#2 -696225646#1 23320456#1 23320456#2"/>
    <route id="E8_to_-387296015" edges="E8 -758088380#0 -696225646#3 -696225646#2 -696225646#1 -387296014#1 -387296014#0 -22889927#4 -22889927#3 -89290458#1 -387296017#0 -387296015"/>
    <route id="E8_to_E6" edges="E8 -758088380#0 394114218#1 394114218#3 937779287#0 -25708827 25708798 -394114218#1 130569446 E5 E6"/>
    <route id="E8_to_1302089903#1" edges="E8 -758088380#0 -696225646#3 -696225646#2 -696225646#1 -387296014#1 -387296014#0 -22889927#4 -22889927#3 -89290458#1 23320555#0 89290459#0 1302089903#1"/>
    <route id="E8_to_-23320505" edges="E8 -758088380#0 -696225646#3 -696225646#2 -696225646#1 -387296014#1 -387296014#0 -22889927#4 -22889927#3 -89290458#1 -387296017#0 23320503 -23320505"/>
    <route id="E8_to_-E4" edges="E8 -758088380#0 -696225646#3 -696225646#2 -696225646#1 -387296014#1 -387296014#0 -22889927#4 -22889927#3 -89290458#1 23320555#0 89290459#0 89290459#1 -23725458#4 -23725458#3 -E4"/>
    <route id="E8_to_282513344#3" edges="E8 -758088380#0 -696225646#3 -696225646#2 -696225646#1 -387296014#1 -387296014#0 -22889927#4 -22889927#3 -89290458#1 23320555#0 -96414313#1 -96414313#0 -23320536 282513344#3"/>
    <route id="E8_to_-25973410#1" edges="E8 -758088380#0 -696225646#3 -696225646#2 -696225646#1 -387296014#1 -387296014#0 -22889927#4 -22889927#3 -89290458#1 23320555#0 89290459#0 89290459#1 -23725458#4 -23725458#3 -366025457#1 -366025457#0 -43323361#3 -43323361#2 -43323361#1 -25973410#1"/>
    <route id="E8_to_281956705#0" edges="E8 -758088380#0 -696225646#3 -696225646#2 -696225646#1 -387296014#1 -387296014#0 -22889927#4 -22889927#3 -89290458#1 23320555#0 89290459#0 89290459#1 23725458#5 281956705#0"/>
    <route id="E8_to_696225646#2" edges="E8 -758088380#0 -696225646#3 -696225646#2 -696225646#1 -387296014#1 -387296014#0 -22889927#4 -22889927#3 -89290458#1 -387296017#0 23320503 387296465 387296014#0 387296014#1 696225646#1 696225646#2"/>
    <route id="E8_to_-1296562737#1" edges="E8 -758088380#0 -696225646#3 -696225646#2 -696225646#1 -387296014#1 -387296014#0 -22889927#4 -22889927#3 -89290458#1 23320555#0 89290459#0 89290459#1 -23725458#4 -23725458#3 -366025457#1 -366025457#0 -43323361#3 -43323361#2 -43323361#1 25973410#2 -1296562737#1"/>
    <route id="E8_to_25973410#5" edges="E8 -758088380#0 -696225646#3 -696225646#2 -696225646#1 -387296014#1 -387296014#0 -22889927#4 -22889927#3 -89290458#1 23320555#0 89290459#0 89290459#1 -23725458#4 -23725458#3 -366025457#1 -366025457#0 -43323361#3 -43323361#2 -43323361#1 25973410#2 25973410#3 25973410#4 25973410#5"/>
    <route id="E8_to_-183419769#0" edges="E8 -758088380#0 -696225646#3 -696225646#2 -696225646#1 -387296014#1 -387296014#0 -22889927#4 -22889927#3 -89290458#1 23320555#0 89290459#0 89290459#1 -23725458#4 -23725458#3 -366025457#1 -366025457#0 -43323361#3 -43323361#2 -43323361#1 34508801#1 183419043#2 183419042#1 -183419769#0"/>
    <route id="E8_to_8026684#1" edges="E8 -758088380#0 -696225646#3 -696225646#2 -696225646#1 -387296014#1 -387296014#0 -22889927#4 -22889927#3 -89290458#1 23320555#0 89290459#0 89290459#1 -23725458#4 -23725458#3 -366025457#1 -366025457#0 -43323361#3 -43323361#2 -43323361#1 34508801#1 183419043#2 183419042#1 183419042#3 183419042#4 8026684#1"/>
    <route id="E8_to_35822597" edges="E8 -758088380#0 -696225646#3 -696225646#2 -696225646#1 -387296014#1 -387296014#0 -22889927#4 -22889927#3 -89290458#1 23320555#0 89290459#0 89290459#1 23725458#5 -717160903#0 -25973407#2 35822597"/>
    <route id="E8_to_-981104557#1" edges="E8 -758088380#0 -696225646#3 -696225646#2 -696225646#1 -387296014#1 -387296014#0 -22889927#4 -22889927#3 -89290458#1 23320555#0 89290459#0 89290459#1 -23725458#4 -23725458#3 -366025457#1 -366025457#0 -43323361#3 -43323361#2 -43323361#1 34508801#1 183419043#2 183419042#1 183419042#3 183419042#4 183419042#5 183419042#7 183419042#8 -981104557#1"/>
    <route id="E8_to_183419042#9" edges="E8 -758088380#0 -696225646#3 -696225646#2 -696225646#1 -387296014#1 -387296014#0 -22889927#4 -22889927#3 -89290458#1 23320555#0 89290459#0 89290459#1 -23725458#4 -23725458#3 -366025457#1 -366025457#0 -43323361#3 -43323361#2 -43323361#1 34508801#1 183419043#2 183419042#1 183419042#3 183419042#4 183419042#5 183419042#7 183419042#8 183419042#9"/>

</routes>
